<VTKFile type='UnstructuredGrid' version='0.1' byte_order='BigEndian'>
<UnstructuredGrid>
<Piece NumberOfPoints='5177' NumberOfCells='18516'>
<Points>
<DataArray type='Float64' NumberOfComponents='3' Format='ascii'>
0 0 0
0 0 7
0 1 0
0 1 7
0 0.5 4.8
0 0.5 1.8
0 0.5 3.3
1 0 6
6 0 6
1 0 0
7 0 7
7 0 0
6 0 0
7 1 7
1 1 6
6 1 6
1 1 0
7 1 0
6 1 0
7 0.5 4.8
7 0.5 1.8
7 0.5 3.3
8 0.5 0
6 0.5 1.8
6 0.5 3.3
6 0.5 4.8
2 0.5 0
1 0.5 1.8
1 0.5 3.3
1 0.5 4.8
8 0.5 -0.25
2 0.5 -0.25
0 0 0.179487
0 0 0.358974
0 0 0.538462
0 0 0.717949
0 0 0.897436
0 0 1.07692
0 0 1.25641
0 0 1.4359
0 0 1.61538
0 0 1.79487
0 0 1.97436
0 0 2.15385
0 0 2.33333
0 0 2.51282
0 0 2.69231
0 0 2.87179
0 0 3.05128
0 0 3.23077
0 0 3.41026
0 0 3.58974
0 0 3.76923
0 0 3.94872
0 0 4.12821
0 0 4.30769
0 0 4.48718
0 0 4.66667
0 0 4.84615
0 0 5.02564
0 0 5.20513
0 0 5.38462
0 0 5.5641
0 0 5.74359
0 0 5.92308
0 0 6.10256
0 0 6.28205
0 0 6.46154
0 0 6.64103
0 0 6.82051
0 0.111111 0
0 0.222222 0
0 0.333333 0
0 0.444444 0
0 0.555556 0
0 0.666667 0
0 0.777778 0
0 0.888889 0
0 1 6.82051
0 1 6.64103
0 1 6.46154
0 1 6.28205
0 1 6.10256
0 1 5.92308
0 1 5.74359
0 1 5.5641
0 1 5.38462
0 1 5.20513
0 1 5.02564
0 1 4.84615
0 1 4.66667
0 1 4.48718
0 1 4.30769
0 1 4.12821
0 1 3.94872
0 1 3.76923
0 1 3.58974
0 1 3.41026
0 1 3.23077
0 1 3.05128
0 1 2.87179
0 1 2.69231
0 1 2.51282
0 1 2.33333
0 1 2.15385
0 1 1.97436
0 1 1.79487
0 1 1.61538
0 1 1.4359
0 1 1.25641
0 1 1.07692
0 1 0.897436
0 1 0.717949
0 1 0.538462
0 1 0.358974
0 1 0.179487
0 0.111111 7
0 0.222222 7
0 0.333333 7
0 0.444444 7
0 0.555556 7
0 0.666667 7
0 0.777778 7
0 0.888889 7
0 0.307164 4.72981
0 0.204558 4.55209
0 0.240192 4.35
0 0.397394 4.21809
0 0.602606 4.21809
0 0.759808 4.35
0 0.795442 4.55209
0 0.692836 4.72981
0 0.307164 1.72981
0 0.204558 1.55209
0 0.240192 1.35
0 0.397394 1.21809
0 0.602606 1.21809
0 0.759808 1.35
0 0.795442 1.55209
0 0.692836 1.72981
0 0.307164 3.22981
0 0.204558 3.05209
0 0.240192 2.85
0 0.397394 2.71809
0 0.602606 2.71809
0 0.759808 2.85
0 0.795442 3.05209
0 0.692836 3.22981
1.17241 0 6
1.34483 0 6
1.51724 0 6
1.68966 0 6
1.86207 0 6
2.03448 0 6
2.2069 0 6
2.37931 0 6
2.55172 0 6
2.72414 0 6
2.89655 0 6
3.06897 0 6
3.24138 0 6
3.41379 0 6
3.58621 0 6
3.75862 0 6
3.93103 0 6
4.10345 0 6
4.27586 0 6
4.44828 0 6
4.62069 0 6
4.7931 0 6
4.96552 0 6
5.13793 0 6
5.31034 0 6
5.48276 0 6
5.65517 0 6
5.82759 0 6
1 0 0.153846
1 0 0.307692
1 0 0.461538
1 0 0.615385
1 0 0.769231
1 0 0.923077
1 0 1.07692
1 0 1.23077
1 0 1.38462
1 0 1.53846
1 0 1.69231
1 0 1.84615
1 0 2
1 0 2.15385
1 0 2.30769
1 0 2.46154
1 0 2.61538
1 0 2.76923
1 0 2.92308
1 0 3.07692
1 0 3.23077
1 0 3.38462
1 0 3.53846
1 0 3.69231
1 0 3.84615
1 0 4
1 0 4.15385
1 0 4.30769
1 0 4.46154
1 0 4.61538
1 0 4.76923
1 0 4.92308
1 0 5.07692
1 0 5.23077
1 0 5.38462
1 0 5.53846
1 0 5.69231
1 0 5.84615
0.111111 0 0
0.222222 0 0
0.333333 0 0
0.444444 0 0
0.555556 0 0
0.666667 0 0
0.777778 0 0
0.888889 0 0
0.241379 0 7
0.482759 0 7
0.724138 0 7
0.965517 0 7
1.2069 0 7
1.44828 0 7
1.68966 0 7
1.93103 0 7
2.17241 0 7
2.41379 0 7
2.65517 0 7
2.89655 0 7
3.13793 0 7
3.37931 0 7
3.62069 0 7
3.86207 0 7
4.10345 0 7
4.34483 0 7
4.58621 0 7
4.82759 0 7
5.06897 0 7
5.31034 0 7
5.55172 0 7
5.7931 0 7
6.03448 0 7
6.27586 0 7
6.51724 0 7
6.75862 0 7
7 0 0.179487
7 0 0.358974
7 0 0.538462
7 0 0.717949
7 0 0.897436
7 0 1.07692
7 0 1.25641
7 0 1.4359
7 0 1.61538
7 0 1.79487
7 0 1.97436
7 0 2.15385
7 0 2.33333
7 0 2.51282
7 0 2.69231
7 0 2.87179
7 0 3.05128
7 0 3.23077
7 0 3.41026
7 0 3.58974
7 0 3.76923
7 0 3.94872
7 0 4.12821
7 0 4.30769
7 0 4.48718
7 0 4.66667
7 0 4.84615
7 0 5.02564
7 0 5.20513
7 0 5.38462
7 0 5.5641
7 0 5.74359
7 0 5.92308
7 0 6.10256
7 0 6.28205
7 0 6.46154
7 0 6.64103
7 0 6.82051
6.11111 0 0
6.22222 0 0
6.33333 0 0
6.44444 0 0
6.55556 0 0
6.66667 0 0
6.77778 0 0
6.88889 0 0
6 0 0.153846
6 0 0.307692
6 0 0.461538
6 0 0.615385
6 0 0.769231
6 0 0.923077
6 0 1.07692
6 0 1.23077
6 0 1.38462
6 0 1.53846
6 0 1.69231
6 0 1.84615
6 0 2
6 0 2.15385
6 0 2.30769
6 0 2.46154
6 0 2.61538
6 0 2.76923
6 0 2.92308
6 0 3.07692
6 0 3.23077
6 0 3.38462
6 0 3.53846
6 0 3.69231
6 0 3.84615
6 0 4
6 0 4.15385
6 0 4.30769
6 0 4.46154
6 0 4.61538
6 0 4.76923
6 0 4.92308
6 0 5.07692
6 0 5.23077
6 0 5.38462
6 0 5.53846
6 0 5.69231
6 0 5.84615
0.241379 1 7
0.482759 1 7
0.724138 1 7
0.965517 1 7
1.2069 1 7
1.44828 1 7
1.68966 1 7
1.93103 1 7
2.17241 1 7
2.41379 1 7
2.65517 1 7
2.89655 1 7
3.13793 1 7
3.37931 1 7
3.62069 1 7
3.86207 1 7
4.10345 1 7
4.34483 1 7
4.58621 1 7
4.82759 1 7
5.06897 1 7
5.31034 1 7
5.55172 1 7
5.7931 1 7
6.03448 1 7
6.27586 1 7
6.51724 1 7
6.75862 1 7
7 0.111111 7
7 0.222222 7
7 0.333333 7
7 0.444444 7
7 0.555556 7
7 0.666667 7
7 0.777778 7
7 0.888889 7
1.17241 1 6
1.34483 1 6
1.51724 1 6
1.68966 1 6
1.86207 1 6
2.03448 1 6
2.2069 1 6
2.37931 1 6
2.55172 1 6
2.72414 1 6
2.89655 1 6
3.06897 1 6
3.24138 1 6
3.41379 1 6
3.58621 1 6
3.75862 1 6
3.93103 1 6
4.10345 1 6
4.27586 1 6
4.44828 1 6
4.62069 1 6
4.7931 1 6
4.96552 1 6
5.13793 1 6
5.31034 1 6
5.48276 1 6
5.65517 1 6
5.82759 1 6
1 1 0.153846
1 1 0.307692
1 1 0.461538
1 1 0.615385
1 1 0.769231
1 1 0.923077
1 1 1.07692
1 1 1.23077
1 1 1.38462
1 1 1.53846
1 1 1.69231
1 1 1.84615
1 1 2
1 1 2.15385
1 1 2.30769
1 1 2.46154
1 1 2.61538
1 1 2.76923
1 1 2.92308
1 1 3.07692
1 1 3.23077
1 1 3.38462
1 1 3.53846
1 1 3.69231
1 1 3.84615
1 1 4
1 1 4.15385
1 1 4.30769
1 1 4.46154
1 1 4.61538
1 1 4.76923
1 1 4.92308
1 1 5.07692
1 1 5.23077
1 1 5.38462
1 1 5.53846
1 1 5.69231
1 1 5.84615
0.111111 1 0
0.222222 1 0
0.333333 1 0
0.444444 1 0
0.555556 1 0
0.666667 1 0
0.777778 1 0
0.888889 1 0
7 1 6.82051
7 1 6.64103
7 1 6.46154
7 1 6.28205
7 1 6.10256
7 1 5.92308
7 1 5.74359
7 1 5.5641
7 1 5.38462
7 1 5.20513
7 1 5.02564
7 1 4.84615
7 1 4.66667
7 1 4.48718
7 1 4.30769
7 1 4.12821
7 1 3.94872
7 1 3.76923
7 1 3.58974
7 1 3.41026
7 1 3.23077
7 1 3.05128
7 1 2.87179
7 1 2.69231
7 1 2.51282
7 1 2.33333
7 1 2.15385
7 1 1.97436
7 1 1.79487
7 1 1.61538
7 1 1.4359
7 1 1.25641
7 1 1.07692
7 1 0.897436
7 1 0.717949
7 1 0.538462
7 1 0.358974
7 1 0.179487
6.11111 1 0
6.22222 1 0
6.33333 1 0
6.44444 1 0
6.55556 1 0
6.66667 1 0
6.77778 1 0
6.88889 1 0
6 1 0.153846
6 1 0.307692
6 1 0.461538
6 1 0.615385
6 1 0.769231
6 1 0.923077
6 1 1.07692
6 1 1.23077
6 1 1.38462
6 1 1.53846
6 1 1.69231
6 1 1.84615
6 1 2
6 1 2.15385
6 1 2.30769
6 1 2.46154
6 1 2.61538
6 1 2.76923
6 1 2.92308
6 1 3.07692
6 1 3.23077
6 1 3.38462
6 1 3.53846
6 1 3.69231
6 1 3.84615
6 1 4
6 1 4.15385
6 1 4.30769
6 1 4.46154
6 1 4.61538
6 1 4.76923
6 1 4.92308
6 1 5.07692
6 1 5.23077
6 1 5.38462
6 1 5.53846
6 1 5.69231
6 1 5.84615
6 0.111111 6
6 0.222222 6
6 0.333333 6
6 0.444444 6
6 0.555556 6
6 0.666667 6
6 0.777778 6
6 0.888889 6
1 0.111111 6
1 0.222222 6
1 0.333333 6
1 0.444444 6
1 0.555556 6
1 0.666667 6
1 0.777778 6
1 0.888889 6
7 0.111111 0
7 0.222222 0
7 0.333333 0
7 0.444444 0
7 0.555556 0
7 0.666667 0
7 0.777778 0
7 0.888889 0
7 0.307164 4.72981
7 0.204558 4.55209
7 0.240192 4.35
7 0.397394 4.21809
7 0.602606 4.21809
7 0.759808 4.35
7 0.795442 4.55209
7 0.692836 4.72981
7 0.307164 1.72981
7 0.204558 1.55209
7 0.240192 1.35
7 0.397394 1.21809
7 0.602606 1.21809
7 0.759808 1.35
7 0.795442 1.55209
7 0.692836 1.72981
7 0.307164 3.22981
7 0.204558 3.05209
7 0.240192 2.85
7 0.397394 2.71809
7 0.602606 2.71809
7 0.759808 2.85
7 0.795442 3.05209
7 0.692836 3.22981
7.96493 0.822456 0
7.86136 1.12983 0
7.69414 1.40776 0
7.47108 1.64324 0
7.20261 1.82527 0
6.90129 1.94532 0
6.58121 1.9978 0
6.25733 1.98024 0
5.94479 1.89347 0
5.65822 1.74153 0
5.41101 1.53155 0
5.21471 1.27333 0
5.07852 0.978952 0
5.00879 0.662179 0
5.00879 0.337821 0
5.07852 0.0210477 0
5.21471 -0.273331 0
5.41101 -0.531549 0
5.65822 -0.741533 0
5.94479 -0.893465 0
6.25733 -0.98024 0
6.58121 -0.9978 0
6.90129 -0.945325 0
7.20261 -0.825268 0
7.47108 -0.643243 0
7.69414 -0.407761 0
7.86136 -0.129834 0
7.96493 0.177544 0
6 0.111111 0
6 0.222222 0
6 0.333333 0
6 0.444444 0
6 0.555556 0
6 0.666667 0
6 0.777778 0
6 0.888889 0
6 0.307164 1.72981
6 0.204558 1.55209
6 0.240192 1.35
6 0.397394 1.21809
6 0.602606 1.21809
6 0.759808 1.35
6 0.795442 1.55209
6 0.692836 1.72981
6 0.307164 3.22981
6 0.204558 3.05209
6 0.240192 2.85
6 0.397394 2.71809
6 0.602606 2.71809
6 0.759808 2.85
6 0.795442 3.05209
6 0.692836 3.22981
6 0.307164 4.72981
6 0.204558 4.55209
6 0.240192 4.35
6 0.397394 4.21809
6 0.602606 4.21809
6 0.759808 4.35
6 0.795442 4.55209
6 0.692836 4.72981
1.96493 0.822456 0
1.86136 1.12983 0
1.69414 1.40776 0
1.47108 1.64324 0
1.20261 1.82527 0
0.901293 1.94532 0
0.581208 1.9978 0
0.257327 1.98024 0
-0.0552072 1.89347 0
-0.341781 1.74153 0
-0.588993 1.53155 0
-0.785286 1.27333 0
-0.92148 0.978952 0
-0.991207 0.662179 0
-0.991207 0.337821 0
-0.92148 0.0210477 0
-0.785286 -0.273331 0
-0.588993 -0.531549 0
-0.341781 -0.741533 0
-0.0552072 -0.893465 0
0.257327 -0.98024 0
0.581208 -0.9978 0
0.901293 -0.945325 0
1.20261 -0.825268 0
1.47108 -0.643243 0
1.69414 -0.407761 0
1.86136 -0.129834 0
1.96493 0.177544 0
1 0.111111 0
1 0.222222 0
1 0.333333 0
1 0.444444 0
1 0.555556 0
1 0.666667 0
1 0.777778 0
1 0.888889 0
1 0.307164 1.72981
1 0.204558 1.55209
1 0.240192 1.35
1 0.397394 1.21809
1 0.602606 1.21809
1 0.759808 1.35
1 0.795442 1.55209
1 0.692836 1.72981
0.111111 0.5 1.8
0.222222 0.5 1.8
0.333333 0.5 1.8
0.444444 0.5 1.8
0.555556 0.5 1.8
0.666667 0.5 1.8
0.777778 0.5 1.8
0.888889 0.5 1.8
1 0.307164 3.22981
1 0.204558 3.05209
1 0.240192 2.85
1 0.397394 2.71809
1 0.602606 2.71809
1 0.759808 2.85
1 0.795442 3.05209
1 0.692836 3.22981
0.111111 0.5 3.3
0.222222 0.5 3.3
0.333333 0.5 3.3
0.444444 0.5 3.3
0.555556 0.5 3.3
0.666667 0.5 3.3
0.777778 0.5 3.3
0.888889 0.5 3.3
1 0.307164 4.72981
1 0.204558 4.55209
1 0.240192 4.35
1 0.397394 4.21809
1 0.602606 4.21809
1 0.759808 4.35
1 0.795442 4.55209
1 0.692836 4.72981
0.111111 0.5 4.8
0.222222 0.5 4.8
0.333333 0.5 4.8
0.444444 0.5 4.8
0.555556 0.5 4.8
0.666667 0.5 4.8
0.777778 0.5 4.8
0.888889 0.5 4.8
6.11111 0.5 4.8
6.22222 0.5 4.8
6.33333 0.5 4.8
6.44444 0.5 4.8
[...]
<PointData Vectors='Velocity'>
<DataArray type='Float64' Name='ux' Format='ascii'>
-0.000319435
0.822172
-0.000301766
0.822774
0.394629
0.0490937
0.180956
0.624425
0.773282
0.000474415
0.67633
0.001525
0.000493869
0.676405
0.624783
0.773492
0.000624748
0.00174127
0.000533796
0.750652
0.194032
0.50662
0.000194962
0.191031
0.503957
0.747917
6.46357e-05
0.0514171
0.183396
0.396582
0
0
-0.000313496
0.000987504
0.00314951
0.00613403
0.0100285
0.0144662
0.0197432
0.0266633
0.0357369
0.0469388
0.0592869
0.0723629
0.0862008
0.100659
0.115753
0.132041
0.150282
0.17079
0.192592
0.215436
0.238689
0.262797
0.287262
0.31313
0.340419
0.369639
0.400679
0.432824
0.465648
0.499316
0.533529
0.568517
0.604015
0.63985
0.675908
0.712166
0.748568
0.785234
-0.000385723
-0.000391461
-0.000370589
-0.000360973
-0.000339697
-0.000335701
-0.00036112
-0.000353447
0.785821
0.749151
0.712714
0.676409
0.640356
0.604444
0.569024
0.534036
0.499776
0.466197
0.4333
0.4011
0.370016
0.340782
0.313643
0.287826
0.263174
0.239064
0.215728
0.192832
0.17086
0.150699
0.132264
0.115831
0.100619
0.0861354
0.0723592
0.0592796
0.0470169
0.0359585
0.0268096
0.0199012
0.0145393
0.0100101
0.00619295
0.00321032
0.00105399
-0.000348469
0.822321
0.822486
0.8226
0.822684
0.822747
0.822795
0.822809
0.822798
0.381754
0.351091
0.320329
0.302032
0.302097
0.320415
0.351266
0.382036
0.0439173
0.033013
0.0240215
0.0203024
0.0202834
0.0239976
0.0330314
0.0442923
0.172121
0.150938
0.130921
0.119771
0.119842
0.131033
0.151208
0.172007
0.62732
0.631355
0.636371
0.642111
0.648396
0.655706
0.663153
0.671296
0.680065
0.689665
0.699355
0.707898
0.717362
0.726398
0.735149
0.744207
0.752503
0.759747
0.76687
0.772805
0.778022
0.781944
0.785403
0.787436
0.787847
0.786881
0.785073
0.781281
0.00220564
0.00381477
0.0056982
0.00818937
0.0113752
0.0152264
0.0196186
0.0246596
0.030417
0.0377811
0.0464168
0.055673
0.0663084
0.0771509
0.0888693
0.101145
0.114448
0.128353
0.143488
0.159562
0.176399
0.19468
0.213709
0.23355
0.25391
0.274834
0.296724
0.319034
0.342406
0.366957
0.392764
0.419251
0.446626
0.474522
0.503066
0.532067
0.561794
0.592324
-0.000386359
-0.000435835
-0.00036769
-0.000285864
-0.000188703
-9.12751e-05
1.00413e-05
0.000286876
0.822381
0.822273
0.821588
0.820133
0.81666
0.811095
0.803216
0.792993
0.782896
0.771322
0.758246
0.745963
0.732374
0.719269
0.706337
0.693913
0.683008
0.671503
0.663162
0.656515
0.652331
0.651202
0.651486
0.655115
0.661312
0.667844
0.672654
0.675743
0.00921285
0.0176666
0.0294391
0.0433827
0.0604329
0.080133
0.102645
0.129173
0.159809
0.193265
0.228168
0.264344
0.301615
0.338996
0.377618
0.416715
0.455985
0.493621
0.529351
0.56448
0.598344
0.631753
0.663559
0.693355
0.719041
0.739787
0.754938
0.765543
0.773731
0.777862
0.779079
0.775629
0.768635
0.758178
0.744359
0.72778
0.709977
0.692802
0.000324697
-8.93002e-05
7.82497e-05
9.0586e-05
-7.96751e-06
0.000219965
0.000450219
0.00107972
0.00471809
0.0106546
0.0189705
0.0296396
0.0425273
0.0568616
0.0733102
0.0918719
0.113568
0.138105
0.165963
0.195661
0.226462
0.257695
0.289534
0.321576
0.35365
0.386399
0.419629
0.452579
0.485634
0.517162
0.547911
0.577388
0.606197
0.6341
0.66052
0.685352
0.707586
0.72661
0.74136
0.752998
0.762121
0.76887
0.773193
0.775755
0.775894
0.774905
0.822954
0.822851
0.822384
0.820685
0.816986
0.810689
0.803904
0.795154
0.784683
0.772446
0.760336
0.746229
0.732852
0.719533
0.705877
0.692226
0.681414
0.671701
0.664056
0.656852
0.652323
0.65081
0.651815
0.656168
0.662198
0.66855
0.67321
0.675516
0.676203
0.676323
0.676255
0.676152
0.676117
0.676264
0.676352
0.676252
0.627695
0.631479
0.636716
0.642443
0.64945
0.656352
0.663764
0.672122
0.680354
0.68973
0.699595
0.708862
0.717757
0.727059
0.735056
0.744033
0.752299
0.760375
0.767341
0.7732
0.778643
0.782585
0.785664
0.787103
0.787672
0.787198
0.785099
0.7805
0.00238268
0.00378438
0.00576564
0.00828674
0.0115453
0.0151691
0.0193597
0.0247141
0.0308859
0.0380831
0.0466307
0.0558263
0.0662303
0.0772565
0.0890603
0.101604
0.114714
0.128727
0.143391
0.159394
0.176807
0.195157
0.214213
0.233932
0.254218
0.275039
0.296807
0.319094
0.342857
0.367383
0.393243
0.419883
0.447047
0.474989
0.503542
0.532666
0.562274
0.592853
-0.000345024
-0.000360654
-0.000385672
-0.000328996
-0.00024162
-0.000154244
8.04225e-05
0.000294878
0.692816
0.710085
0.72753
0.744218
0.758428
0.769214
0.775923
0.779226
0.778303
0.773452
0.765778
0.755143
0.740105
0.718977
0.692615
0.663027
0.631398
0.598434
0.56436
0.529256
0.493384
0.455896
0.416427
0.377458
0.338953
0.30131
0.264347
0.227977
0.193039
0.159607
0.129272
0.102904
0.079817
0.0604697
0.0435127
0.029462
0.0178753
0.00889093
6.84103e-05
-0.000113018
-0.000297408
-0.000191627
-0.000109583
-2.33927e-05
0.000631147
0.00103806
0.00431895
0.0101925
0.0190831
0.0296311
0.0423113
0.0568169
0.0734183
0.092127
0.113747
0.138293
0.166051
0.195606
0.226509
0.257758
0.289259
0.321446
0.354047
0.386771
0.419538
0.452682
0.485649
0.51741
0.548082
0.57743
0.606057
0.6338
0.659957
0.685235
0.707038
0.725998
0.740954
0.753122
0.762328
0.768893
0.773333
0.77582
0.776584
0.775213
0.772961
0.772626
0.772148
0.772224
0.772488
0.772427
0.772734
0.77265
0.624237
0.624186
0.624372
0.624095
0.624112
0.624359
0.624414
0.624619
0.00184732
0.00234814
0.00238629
0.00248856
0.00265142
0.00257042
0.00247583
0.00238626
0.744674
0.725674
0.696849
0.674134
0.674048
0.69639
0.725117
0.744364
0.182272
0.152807
0.116246
0.0956024
0.0948023
0.116144
0.153069
0.182251
0.493244
0.456571
0.410825
0.379494
0.379517
0.410789
0.456619
0.492741
0.000224886
0.000219606
0.000191854
0.000135391
6.59136e-05
3.10289e-06
-1.56999e-05
-2.85811e-05
-2.12331e-05
1.52884e-05
6.06315e-05
7.43099e-05
8.40313e-05
8.62702e-05
8.45889e-05
7.58742e-05
7.15453e-05
4.92683e-05
2.11899e-05
-8.08998e-06
-1.88789e-05
-2.64787e-05
6.8959e-06
4.79191e-05
0.000150766
0.000182189
0.000170469
0.000216916
0.000822082
0.000913282
0.000991603
0.00102447
0.00106899
0.000835644
0.000873012
0.000729223
0.176483
0.142112
0.109143
0.0913938
0.091564
0.109232
0.142281
0.176539
0.487249
0.446235
0.402934
0.376054
0.37611
0.402715
0.446651
0.487395
0.739714
0.715051
0.688928
0.671463
0.670975
0.689062
0.714838
0.738618
7.59528e-05
7.58676e-05
6.92472e-05
5.03167e-05
2.67415e-05
8.67631e-06
-1.00572e-05
-1.10675e-05
-1.94991e-05
-2.54702e-05
-3.07049e-05
-2.79028e-05
-2.83221e-05
-2.83786e-05
-3.1285e-05
-3.0011e-05
-3.1347e-05
-2.77881e-05
-2.54097e-05
-1.48307e-05
-1.19899e-05
-6.45857e-06
4.59749e-06
2.08215e-05
5.54095e-05
6.23348e-05
5.59137e-05
7.12679e-05
0.000788568
0.000818199
0.000822928
0.000794307
0.000816581
0.000804517
0.000757686
0.000774154
0.048408
0.0398193
0.0296192
0.0228401
0.0228837
0.029834
0.0400926
0.0484362
0.0491722
0.0491502
0.049387
0.0495503
0.0499991
0.050487
0.0508527
0.0513011
0.176157
0.158311
0.136275
0.122407
0.122574
0.136583
0.158023
0.176624
0.181074
0.181055
0.181304
0.181476
0.181908
0.182361
0.182854
0.183028
0.386097
0.358627
0.325814
0.30438
0.30443
0.326023
0.358958
0.386027
0.394573
0.394531
0.394747
0.394932
0.395325
0.395757
0.396279
0.396272
0.748306
0.749043
0.749945
0.750817
0.751095
0.751399
0.751296
0.750995
0.191125
0.191248
0.191659
0.192019
0.192545
0.193016
0.193462
0.193696
0.504266
0.504543
0.505342
0.505957
0.50648
0.50676
0.50689
0.506544
0
0
0
0
0
0
0
0
0
0
0
0
0
0
0
0
0
0
0
0
0
0
0
0
0
0
0
0
0
0
0
0
0
0
0
0
0
0
0
0
0
0
0
0
0
0
0
0
0
0
0
0
0
0
0
0
-0.000236114
0.802901
0.622123
0.516776
0.0050984
0.695147
0.588481
0.48425
0.0778742
0.00484768
0.693733
0.07977
0.275695
0.803744
0.803551
-0.000356313
-0.00018474
0.227612
0.228024
0.0148361
0.44977
0.104969
0.417964
0.0581245
0.0631716
0.012762
0.01291
0.428454
0.27514
0.275221
0.10571
0.0900998
0.105816
0.196406
0.20669
0.45169
0.460859
0.485107
0.493947
0.519275
0.52833
0.553373
0.566393
0.588545
0.537252
0.771494
0.000390534
0.000327663
0.769772
0.0720816
0.0775311
0.22185
0.230402
0.246724
0.0673155
0.0542508
0.440654
0.00238204
0.00370974
0.00715069
0.00542838
0.00282835
0.00394464
0.001706
0.00672354
0.000985015
0.00266154
0.00134858
0.000436755
0.732341
0.714828
0.679071
0.698602
0.733041
0.663214
0.643482
0.718311
0.750144
0.765987
0.738575
0.748941
0.625612
0.655492
0.607582
0.623931
0.601223
0.58299
0.686649
0.052822
0.482938
0.0084312
0.0107753
0.519168
0.655687
0.00864656
0.0110921
0.0930465
0.00971013
0.0183152
0.0185139
0.659699
0.413219
0.0923431
0.204857
0.20472
0.0678237
0.000223583
0.0930986
0.251467
0.251253
0.262857
0.779206
0.789431
0.802865
-0.000175622
-0.000233937
0.768609
0.551641
0.800138
0.800865
-0.000323541
-0.000286682
0.183258
0.182974
0.408958
0.572896
0.77651
0.548016
0.000204732
0.108535
0.108756
0.193963
0.262865
0.0154762
0.0155755
0.216715
0.43676
0.385563
0.0556448
0.30069
0.300041
0.0423314
0.0417034
0.50282
0.73048
0.239936
0.0662488
0.469579
0.381154
0.00228192
0.410932
0.708431
0.471786
0.000154348
0.080599
0.284367
0.251042
0.28412
0.498085
0.0818685
0.240046
0.785388
4.7201e-05
0.123596
0.12367
0.808329
0.00512553
-0.000346518
-0.000383942
0.801527
0.800586
0.165361
0.165247
0.678115
0.327173
0.326334
0.628796
0.117063
0.117286
0.0234212
0.0234555
0.139463
0.139486
0.00106432
0.459726
0.787913
0.00726495
0.00159022
-0.000213107
0.737587
0.694247
0.0231533
0.00590396
0.487754
0.77696
0.308687
0.279024
0.701575
0.0712983
0.0162974
0.0817194
0.468048
0.16492
0.564414
0.761017
0.222149
0.379381
0.0334409
0.107411
0.180701
0.574895
0.370995
0.775109
0.765606
0.645888
0.0477798
0.618964
0.749498
0.122045
0.040963
0.140697
0.249565
0.414839
0.655404
0.653035
0.660521
0.432725
0.319547
0.779559
0.00799332
0.0494191
0.770704
0.777947
0.0786977
0.323966
0.5157
0.239761
0.511045
0.0167898
0.181267
0.432825
0.124482
0.622533
0.262913
0.739382
0.134185
0.0476766
0.757766
0.757966
0.72776
0.683686
0.669485
0.750105
0.765142
0.709718
0.739883
0.696475
0.762903
0.580677
0.749069
0.706244
0.0892321
0.0205266
0.00209257
0.740554
0.683671
0.681964
0.650664
0.0011793
0.000276722
0.763869
0.690298
0.724517
0.682949
0.760669
0.774281
0.767751
0.702606
0.738827
0.677097
0.730124
0.680041
0.00235003
-0.000313534
0.711499
0.768599
0.648732
0.710298
0.721687
0.739634
0.719278
0.780545
0.692254
0.732234
0.776709
0.779384
0.78095
0.729158
0.619908
0.618058
0.589335
0.588046
0.559566
0.781291
0.781315
0.77981
0.778796
0.775676
0.773724
0.704909
0.720612
0.782315
0.685382
0.769283
0.765802
0.76014
0.756092
0.756556
0.743893
0.770265
0.646428
0.748272
0.741516
0.731474
0.722681
0.771347
0.710549
0.698439
0.683944
0.670704
0.655157
0.640982
0.780211
0.625367
0.610372
0.59482
0.57934
0.564457
0.547528
0.53151
0.514452
0.713726
0.717541
0.558576
0.53133
0.531971
0.503996
0.496842
0.480298
0.461804
0.444732
0.426024
0.408501
0.733261
0.00198639
0.0058408
0.667254
0.38997
0.373496
0.391414
0.354551
0.337071
0.319508
0.302347
0.463059
0.688618
0.685679
0.771264
0.516488
0.739104
0.284887
0.267842
0.25079
0.234187
0.217317
0.200501
0.283224
0.217707
0.18451
0.167793
0.152273
0.13672
0.123001
0.109836
0.0991272
0.0869459
0.0775606
0.0677909
0.0591245
0.0502657
0.0431117
0.0355543
0.0292964
0.0228971
0.0179156
0.0128428
0.00968555
0.151744
0.0974997
0.20325
0.504117
0.477134
0.476151
0.450335
0.531684
0.449559
0.423803
0.424674
0.398533
0.398527
0.372382
0.366996
0.345482
0.349437
0.325477
0.328306
0.305947
0.303414
0.284476
0.287642
0.265877
0.28202
0.475873
0.400711
0.351782
0.530864
0.627502
0.710744
0.72608
0.0583198
0.00541198
0.00877231
0.231439
0.0286402
0.32983
0.753122
0.111618
0.748755
0.406618
0.336798
0.586291
0.780344
0.682084
0.0142213
0.778043
0.765952
0.736299
0.733391
0.713404
0.708943
0.711137
0.72963
0.713228
0.727352
0.714897
0.72618
0.71381
0.722439
0.717107
0.721653
0.720387
0.721652
0.746476
0.73787
0.710535
0.73186
0.0327698
0.69588
0.711345
0.709784
0.727276
0.728598
0.732567
0.710892
0.732157
0.711454
0.732869
0.712948
0.739039
0.716341
0.750221
0.713595
0.716302
0.725778
0.725528
0.719422
0.726395
0.710161
0.71615
0.676306
0.732259
0.00466605
0.00652035
0.00997565
0.00845557
0.00537297
0.0123681
0.00732373
0.00444098
0.00282044
0.0022697
0.00111384
0.000626009
0.00166289
0.0144754
0.0169177
0.0150198
0.0200365
0.0224353
0.025829
0.0284973
0.0251062
0.0336289
0.0370351
0.0231179
0.0427734
0.0475262
0.0534176
0.0590133
0.0528264
0.0650477
0.0711204
0.0774931
0.0840189
0.0906534
0.0971193
0.104205
0.111006
0.118526
0.125759
0.133657
0.141388
0.149817
0.159484
0.167213
0.178549
0.187211
0.198596
0.20979
0.0903017
0.142435
0.0983275
0.203458
0.22207
0.230814
0.243595
0.190268
0.0583142
0.118683
0.212101
0.149731
0.00151925
0.000247877
0.000292757
0.00364678
0.00374157
0.00628729
0.00948239
0.0133821
0.0162182
0.07131
0.67868
0.00962575
0.0422366
0.0752204
0.123334
0.375162
0.560331
0.00675899
0.685597
0.623092
0.0106697
0.701453
0.0774725
0.0831688
0.0649005
0.776956
0.55428
0.0120997
0.183451
0.0352455
0.300662
0.766394
0.739192
0.0243769
0.281584
0.472208
0.614289
0.546862
0.657669
0.676029
0.106814
0.718102
0.44941
0.0389188
0.00358321
0.0226888
0.0302305
0.0371861
0.762061
0.158431
0.171109
0.35659
0.336873
0.394256
0.753231
0.747696
0.765658
0.777215
0.00864492
0.676494
0.178832
0.449172
0.0177629
0.0580017
0.731943
0.0641294
0.219963
0.245177
0.678009
0.446922
0.151534
0.284043
0.2425
0.460359
0.593654
0.403702
0.309632
0.101482
0.778497
0.774101
0.35296
0.497181
0.780464
0.0192472
0.740553
0.012065
0.563319
0.596377
0.76127
0.249627
0.427137
0.657186
0.71111
0.749361
0.781376
0.776812
0.771674
0.672278
0.664648
0.677479
0.75483
0.716098
0.758004
0.721635
0.733917
0.689305
0.703056
0.745033
0.764992
0.502578
0.616244
0.103409
0.720253
0.277614
0.30864
0.138591
-0.000323342
4.6048e-05
0.0013701
0.00186361
0.00322165
-0.000284721
0.689668
0.756625
0.746737
0.778135
0.516887
0.0007109
0.0015052
0.353892
0.750057
0.753897
0.589202
0.783001
0.38484
0.650004
0.269379
0.202189
0.778603
0.761551
0.0132946
0.120333
0.126845
0.744167
0.0373768
0.70638
0.533618
0.264565
0.658039
0.711008
0.711648
0.232744
0.779524
0.775535
0.723695
0.545878
0.322792
0.112459
0.728753
0.133634
0.000185939
0.206785
0.773267
0.638704
0.071458
0.0954645
0.609516
0.767946
0.0923678
0.763616
0.474819
0.0210495
0.685982
0.00481082
0.15033
0.0537379
0.750297
0.73706
0.579909
0.0520767
0.693736
0.712971
0.744088
0.00401433
0.677274
0.0846983
0.722594
0.000757586
0.0651064
0.0460439
0.170021
0.742468
0.0266237
-0.00016278
0.0668072
0.260633
0.548594
0.528087
0.426344
0.423455
0.741904
0.482514
0.698922
0.686097
0.361565
0.00565967
0.734523
0.183281
0.0894207
0.767885
0.0300616
0.502093
0.209662
0.113095
0.249375
0.688331
0.312789
0.642222
0.737096
0.482268
0.380988
0.00116142
0.00460954
0.706653
0.157405
0.686293
0.70319
0.742513
0.373791
0.23161
0.13818
0.197427
0.302241
0.228769
0.262027
0.432999
0.703477
0.748849
0.167745
0.291444
0.586332
0.208766
0.0410037
0.0430945
0.250087
0.69702
0.743263
0.59988
0.721467
0.137235
0.189491
0.700788
0.234331
0.763436
-0.000327774
0.329963
0.403071
0.732378
0.371929
0.00417266
0.00197145
0.00100813
0.696528
0.199428
0.410789
0.166729
0.766484
0.686703
0.79568
0.0312296
0.739371
0.0482927
0.340139
0.72553
0.301032
0.720672
0.266713
0.732023
0.729439
0.338058
0.750453
0.718674
0.706509
0.00914574
0.559486
0.25204
0.113575
0.71144
0.00231051
0.747907
0.696543
0.701339
0.442993
0.30007
-0.000284089
0.50198
0.692331
0.742266
0.742259
0.448016
0.49796
0.763056
0.675892
0.822792
0.670617
0.822432
0.712271
0.686903
0.73831
0.651079
0.813789
0.77831
0.66045
0.799121
0.658125
0.821373
0.6645
0.677523
0.651083
0.76364
0.654922
0.806364
0.653525
0.676003
0.822905
0.822643
0.676019
0.715016
0.737808
0.673791
0.823037
0.670015
0.672103
0.674906
0.673924
0.67396
0.8226
0.822928
0.822981
0.822897
0.822675
0.822662
0.67012
0.820939
0.664009
0.661784
0.656091
0.658289
0.817918
0.817087
0.810764
0.814289
0.818923
0.820196
0.653348
0.651844
0.650752
0.650706
0.806671
0.804202
0.792829
0.800878
0.789197
0.782972
0.67678
0.681547
0.671356
0.693466
0.687467
0.699107
0.668196
0.663957
0.656913
0.667272
0.659683
0.776797
0.77205
0.759481
0.765284
0.75098
0.7873
0.726312
0.719712
0.734251
0.725916
0.751253
0.745076
0.698606
0.70565
0.653929
0.65255
0.651402
0.668067
0.822292
0.675858
0.675244
0.822747
0.822789
0.675747
0.676036
0.675986
0.822893
0.82244
0.822846
0.658656
0.817675
0.814012
0.653837
0.65219
0.807287
0.696711
0.687225
0.73878
0.755973
0.725811
0.766375
0.67593
0.66783
0.660837
0.651169
0.778166
0.797739
0.788841
0.822903
0.675412
0.821943
0.666434
0.821311
0.675386
0.823006
0.663513
0.6552
0.715867
0.708383
0.650956
0.672533
0.82277
0.67543
0.822607
0.00117339
-0.000125327
0.694665
0.736546
0.0233516
0.00606492
0.488221
0.773771
0.308725
0.0163715
0.6786
0.0658374
0.165627
0.469537
0.0699914
0.241041
0.736708
0.565543
0.338555
0.379863
0.223236
0.106805
0.778432
0.124495
0.575383
0.032728
0.619274
0.0415406
0.251887
0.766738
0.173709
0.616092
0.415358
0.761263
0.392161
0.122303
0.655812
0.65374
0.660924
0.758268
0.759041
0.76413
0.00814624
0.0490625
0.516197
0.780575
0.705045
0.324402
0.0874889
0.278187
0.0781609
0.01712
0.510921
0.181809
0.76139
0.433123
0.622411
0.264056
0.406672
0.135032
0.176513
0.0482611
0.761762
0.728098
0.684275
0.670208
0.765396
0.750135
0.709673
0.739834
0.696488
0.019715
0.00195504
0.684197
0.682381
0.651251
0.742528
0.743518
0.759518
0.000969653
0.000348544
0.693843
0.725049
0.682246
0.761803
0.768996
0.683286
0.701703
0.738864
0.680551
0.744815
0.00262358
-0.000345885
0.727853
0.711989
0.759202
0.649248
0.710918
0.729252
0.68248
0.780914
0.620237
0.618484
0.589859
0.588498
0.560063
0.770874
0.769754
0.777146
0.776101
0.78016
0.693181
0.782883
0.741904
0.685778
0.710845
0.74427
0.646835
0.758785
0.713883
0.717727
0.724149
0.721378
0.559092
0.53183
0.532433
0.504472
0.779758
0.78165
0.781262
0.780161
0.00200536
0.00531783
0.711569
0.739427
0.50466
0.477709
0.476651
0.450793
0.532179
0.44995
0.42437
0.425175
0.399155
0.398947
0.372867
0.367394
0.345861
0.349824
0.325866
0.328554
0.306137
0.303817
0.28474
0.288881
0.266326
0.282627
0.4764
0.401181
0.352171
0.779079
0.776084
0.776861
0.771254
0.780319
0.771613
0.764428
0.763221
0.754048
0.755587
0.742758
0.740451
0.725295
0.726016
0.705708
0.705611
0.682507
0.681799
0.657046
0.658287
0.631514
0.6561
0.776982
0.752879
0.725966
0.702615
0.330289
0.775356
0.586835
0.778671
0.680104
0.680375
0.706274
0.707659
0.730325
0.72989
0.728172
0.71033
0.729604
0.706153
0.729984
0.711742
0.76696
0.737539
0.734062
0.71429
0.709284
0.712543
0.730877
0.713796
0.727766
0.715168
0.726669
0.714047
0.72261
0.717807
0.722377
0.721135
0.721725
0.747107
0.738043
0.710851
0.732065
0.695813
0.713283
0.715974
0.725903
0.72481
0.718315
0.726455
0.723735
0.712313
0.733288
0.00462036
0.00659792
0.0103384
0.00875913
0.0127023
0.00543726
0.00759017
0.00467894
0.00302511
0.0024429
0.00131397
0.00108531
0.00211696
0.00167019
0.000310709
0.000309655
0.0145269
0.0173145
0.0154559
0.0204118
0.0225437
0.0265547
0.0297509
0.0344043
0.0392101
0.026042
0.0439816
0.0490391
0.0546996
0.0602249
0.0544878
0.0656996
0.0723399
0.0240876
0.0781929
0.0850857
0.0916872
0.0985702
0.105361
0.112544
0.0919623
0.119728
0.127469
0.135333
0.143786
0.152694
0.162209
0.171809
0.181822
0.192338
0.202583
0.21345
0.223704
0.23352
0.192381
0.221977
0.119546
0.145984
0.152749
0.0985867
0.0392218
0.0595611
0.00664322
0.00996237
0.0333604
0.0391948
0.0550928
0.0452619
0.0617953
0.031066
0.03704
0.0240766
0.0192978
0.0137555
0.01053
0.00693635
0.00939865
0.015044
0.00699677
0.0110935
0.0726002
0.0804667
0.0700442
0.0894716
0.10235
0.112196
0.12839
0.13929
0.15907
0.1202
0.170557
0.18934
0.202753
0.221596
0.207842
0.240185
0.255774
0.0993549
0.27413
0.290609
0.310469
0.326253
0.345957
0.361577
0.306091
0.382091
0.39818
0.418546
0.434784
0.456155
0.471547
0.491333
0.50592
0.525281
0.539435
0.557875
0.571537
0.587756
0.520786
0.572299
0.37615
0.444107
0.449894
0.330246
0.151979
0.225346
0.0293151
0.0431933
0.00377287
0.0134238
0.0182864
0.00406604
0.552892
0.583594
0.213099
0.234061
0.105449
0.341313
0.413069
0.135553
0.172906
0.487319
0.375531
0.742432