<VTKFile type='UnstructuredGrid' version='0.1' byte_order='BigEndian'>
<UnstructuredGrid>
<Piece NumberOfPoints='1404' NumberOfCells='4174'>
<Points>
<DataArray type='Float64' NumberOfComponents='3' Format='ascii'>
0 0 0
0 0 7
0 1 0
0 1 7
0 0.5 4.8
0 0.5 1.8
0 0.5 3.3
1 0 6
6 0 6
1 0 0
7 0 7
7 0 0
6 0 0
7 1 7
1 1 6
6 1 6
1 1 0
7 1 0
6 1 0
7 0.5 4.8
7 0.5 1.8
7 0.5 3.3
8 0.5 0
6 0.5 1.8
6 0.5 3.3
6 0.5 4.8
2 0.5 0
1 0.5 1.8
1 0.5 3.3
1 0.5 4.8
8 0.5 -0.25
2 0.5 -0.25
0 0 0.368421
0 0 0.736842
0 0 1.10526
0 0 1.47368
0 0 1.84211
0 0 2.21053
0 0 2.57895
0 0 2.94737
0 0 3.31579
0 0 3.68421
0 0 4.05263
0 0 4.42105
0 0 4.78947
0 0 5.15789
0 0 5.52632
0 0 5.89474
0 0 6.26316
0 0 6.63158
0 0.25 0
0 0.5 0
0 0.75 0
0 1 6.63158
0 1 6.26316
0 1 5.89474
0 1 5.52632
0 1 5.15789
0 1 4.78947
0 1 4.42105
0 1 4.05263
0 1 3.68421
0 1 3.31579
0 1 2.94737
0 1 2.57895
0 1 2.21053
0 1 1.84211
0 1 1.47368
0 1 1.10526
0 1 0.736842
0 1 0.368421
0 0.25 7
0 0.5 7
0 0.75 7
0 0.2 4.5
0 0.5 4.2
0 0.8 4.5
0 0.2 1.5
0 0.5 1.2
0 0.8 1.5
0 0.2 3
0 0.5 2.7
0 0.8 3
1.26316 0 6
1.52632 0 6
1.78947 0 6
2.05263 0 6
2.31579 0 6
2.57895 0 6
2.84211 0 6
3.10526 0 6
3.36842 0 6
3.63158 0 6
3.89474 0 6
4.15789 0 6
4.42105 0 6
4.68421 0 6
4.94737 0 6
5.21053 0 6
5.47368 0 6
5.73684 0 6
1 0 0.315789
1 0 0.631579
1 0 0.947368
1 0 1.26316
1 0 1.57895
1 0 1.89474
1 0 2.21053
1 0 2.52632
1 0 2.84211
1 0 3.15789
1 0 3.47368
1 0 3.78947
1 0 4.10526
1 0 4.42105
1 0 4.73684
1 0 5.05263
1 0 5.36842
1 0 5.68421
0.25 0 0
0.5 0 0
0.75 0 0
0.368421 0 7
0.736842 0 7
1.10526 0 7
1.47368 0 7
1.84211 0 7
2.21053 0 7
2.57895 0 7
2.94737 0 7
3.31579 0 7
3.68421 0 7
4.05263 0 7
4.42105 0 7
4.78947 0 7
5.15789 0 7
5.52632 0 7
5.89474 0 7
6.26316 0 7
6.63158 0 7
7 0 0.368421
7 0 0.736842
7 0 1.10526
7 0 1.47368
7 0 1.84211
7 0 2.21053
7 0 2.57895
7 0 2.94737
7 0 3.31579
7 0 3.68421
7 0 4.05263
7 0 4.42105
7 0 4.78947
7 0 5.15789
7 0 5.52632
7 0 5.89474
7 0 6.26316
7 0 6.63158
6.25 0 0
6.5 0 0
6.75 0 0
6 0 0.315789
6 0 0.631579
6 0 0.947368
6 0 1.26316
6 0 1.57895
6 0 1.89474
6 0 2.21053
6 0 2.52632
6 0 2.84211
6 0 3.15789
6 0 3.47368
6 0 3.78947
6 0 4.10526
6 0 4.42105
6 0 4.73684
6 0 5.05263
6 0 5.36842
6 0 5.68421
0.368421 1 7
0.736842 1 7
1.10526 1 7
1.47368 1 7
1.84211 1 7
2.21053 1 7
2.57895 1 7
2.94737 1 7
3.31579 1 7
3.68421 1 7
4.05263 1 7
4.42105 1 7
4.78947 1 7
5.15789 1 7
5.52632 1 7
5.89474 1 7
6.26316 1 7
6.63158 1 7
7 0.25 7
7 0.5 7
7 0.75 7
1.26316 1 6
1.52632 1 6
1.78947 1 6
2.05263 1 6
2.31579 1 6
2.57895 1 6
2.84211 1 6
3.10526 1 6
3.36842 1 6
3.63158 1 6
3.89474 1 6
4.15789 1 6
4.42105 1 6
4.68421 1 6
4.94737 1 6
5.21053 1 6
5.47368 1 6
5.73684 1 6
1 1 0.315789
1 1 0.631579
1 1 0.947368
1 1 1.26316
1 1 1.57895
1 1 1.89474
1 1 2.21053
1 1 2.52632
1 1 2.84211
1 1 3.15789
1 1 3.47368
1 1 3.78947
1 1 4.10526
1 1 4.42105
1 1 4.73684
1 1 5.05263
1 1 5.36842
1 1 5.68421
0.25 1 0
0.5 1 0
0.75 1 0
7 1 6.63158
7 1 6.26316
7 1 5.89474
7 1 5.52632
7 1 5.15789
7 1 4.78947
7 1 4.42105
7 1 4.05263
7 1 3.68421
7 1 3.31579
7 1 2.94737
7 1 2.57895
7 1 2.21053
7 1 1.84211
7 1 1.47368
7 1 1.10526
7 1 0.736842
7 1 0.368421
6.25 1 0
6.5 1 0
6.75 1 0
6 1 0.315789
6 1 0.631579
6 1 0.947368
6 1 1.26316
6 1 1.57895
6 1 1.89474
6 1 2.21053
6 1 2.52632
6 1 2.84211
6 1 3.15789
6 1 3.47368
6 1 3.78947
6 1 4.10526
6 1 4.42105
6 1 4.73684
6 1 5.05263
6 1 5.36842
6 1 5.68421
6 0.25 6
6 0.5 6
6 0.75 6
1 0.25 6
1 0.5 6
1 0.75 6
7 0.25 0
7 0.5 0
7 0.75 0
7 0.2 4.5
7 0.5 4.2
7 0.8 4.5
7 0.2 1.5
7 0.5 1.2
7 0.8 1.5
7 0.2 3
7 0.5 2.7
7 0.8 3
7.91873 0.987049 0
7.68371 1.42132 0
7.32042 1.75575 0
6.86823 1.9541 0
6.37613 1.99488 0
5.89746 1.87366 0
5.48408 1.60359 0
5.18079 1.21392 0
5.02046 0.746892 0
5.02046 0.253108 0
5.18079 -0.213921 0
5.48408 -0.603586 0
5.89746 -0.87366 0
6.37613 -0.994877 0
6.86823 -0.9541 0
7.32042 -0.75575 0
7.68371 -0.421319 0
7.91873 0.0129508 0
6 0.25 0
6 0.5 0
6 0.75 0
6 0.2 1.5
6 0.5 1.2
6 0.8 1.5
6 0.2 3
6 0.5 2.7
6 0.8 3
6 0.2 4.5
6 0.5 4.2
6 0.8 4.5
1.91873 0.987049 0
1.68371 1.42132 0
1.32042 1.75575 0
0.868228 1.9541 0
0.376131 1.99488 0
-0.102543 1.87366 0
-0.515922 1.60359 0
-0.819211 1.21392 0
-0.979542 0.746892 0
-0.979542 0.253108 0
-0.819211 -0.213921 0
-0.515922 -0.603586 0
-0.102543 -0.87366 0
0.376131 -0.994877 0
0.868228 -0.9541 0
1.32042 -0.75575 0
1.68371 -0.421319 0
1.91873 0.0129508 0
1 0.25 0
1 0.5 0
1 0.75 0
1 0.2 1.5
1 0.5 1.2
1 0.8 1.5
0.25 0.5 1.8
0.5 0.5 1.8
0.75 0.5 1.8
1 0.2 3
1 0.5 2.7
1 0.8 3
0.25 0.5 3.3
0.5 0.5 3.3
0.75 0.5 3.3
1 0.2 4.5
1 0.5 4.2
1 0.8 4.5
0.25 0.5 4.8
0.5 0.5 4.8
0.75 0.5 4.8
6.25 0.5 4.8
6.5 0.5 4.8
6.75 0.5 4.8
6.25 0.5 1.8
6.5 0.5 1.8
6.75 0.5 1.8
6.25 0.5 3.3
6.5 0.5 3.3
6.75 0.5 3.3
7.91873 0.987049 -0.25
7.68371 1.42132 -0.25
7.32042 1.75575 -0.25
6.86823 1.9541 -0.25
6.37613 1.99488 -0.25
5.89746 1.87366 -0.25
5.48408 1.60359 -0.25
5.18079 1.21392 -0.25
5.02046 0.746892 -0.25
5.02046 0.253108 -0.25
5.18079 -0.213921 -0.25
5.48408 -0.603586 -0.25
5.89746 -0.87366 -0.25
6.37613 -0.994877 -0.25
6.86823 -0.9541 -0.25
7.32042 -0.75575 -0.25
7.68371 -0.421319 -0.25
7.91873 0.0129508 -0.25
1.91873 0.987049 -0.25
1.68371 1.42132 -0.25
1.32042 1.75575 -0.25
0.868228 1.9541 -0.25
0.376131 1.99488 -0.25
-0.102543 1.87366 -0.25
-0.515922 1.60359 -0.25
-0.819211 1.21392 -0.25
-0.979542 0.746892 -0.25
-0.979542 0.253108 -0.25
-0.819211 -0.213921 -0.25
-0.515922 -0.603586 -0.25
-0.102543 -0.87366 -0.25
0.376131 -0.994877 -0.25
0.868228 -0.9541 -0.25
1.32042 -0.75575 -0.25
1.68371 -0.421319 -0.25
1.91873 0.0129508 -0.25
0 0.686263 5.35427
0 0.685655 0.54425
0 0.349303 6.06663
0 0.385229 6.77055
0 0.382149 0.227229
0 0.74142 6.49139
0 0.278964 6.47128
0 0.711284 6.11724
0 0.625951 5.75467
0 0.292896 0.552632
0 0.36551 5.52678
0 0.3641 5.16265
0 0.66136 3.86767
0 0.27918 3.92883
0 0.625275 6.77795
0 0.615467 0.227619
0 0.309252 2.39474
0 0.726078 2.45172
0 0.492795 0.827797
0 0.20185 2.72421
0 0.805216 2.73561
0 0.182838 1.24
0 0.814247 1.24
0 0.702618 2.06297
0 0.280265 2.01849
0 0.195836 4.2205
0 0.785358 4.21492
0 0.291877 3.5466
0 0.743934 3.5
0 0.716567 5.00222
0 0.755198 0.936271
0 0.268999 5.78556
0 0.77848 1.74543
0 0.226833 1.74507
0 0.760983 3.27895
0 0.754142 4.77292
0 0.21282 4.882
0 0.828732 0.21553
0 0.155617 0.207397
0 0.166313 6.78643
0 0.823339 6.78018
0 0.247969 3.2906
0 0.503404 6.5723
0 0.225327 0.929326
0 0.509819 6.30543
0 0.495744 0.394245
5.33905 0 6.2259
1.67748 0 6.20467
3.52132 0 6.20838
4.27376 0 6.22355
2.42965 0 6.22078
2.97368 0 6.22507
1.13657 0 6.23753
0.853959 0 6.24006
4.81579 0 6.2266
5.86343 0 6.23753
6.14604 0 6.24006
0.676711 0 6.02402
6.27137 0 6.00714
0.736211 0 5.53996
6.20337 0 5.50927
6.24851 0 0.453659
0.751533 0 0.453579
6.2675 0 2.05263
6.2675 0 4.26316
0.7325 0 2.05263
0.7325 0 4.26316
0.683373 0 2.70895
0.738137 0 4.92229
6.31663 0 4.91947
6.31663 0 2.70895
0.736242 0 3.58875
0.774163 0 1.37616
6.26376 0 3.58875
6.22597 0 1.37616
6.64432 0 0.890572
0.355793 0 0.890492
6.70828 0 3.13158
0.291724 0 3.13158
2.03695 0 6.70117
3.8828 0 6.70162
6.61477 0 0.23019
0.385229 0 0.23019
0.325466 0 6.45723
6.67382 0 6.45599
2.74351 0 6.71402
4.58772 0 6.71498
1.0004 0 6.48739
1.2721 0 6.46667
5.9996 0 6.48739
5.71238 0 6.47355
6.72088 0 2.38387
0.279122 0 2.38387
0.295102 0 4.60585
6.72088 0 4.59439
6.66146 0 1.67383
0.338545 0 1.67383
6.66072 0 3.88743
0.339282 0 3.88743
6.71894 0 5.33969
0.265606 0 5.34864
5.31706 0 6.71509
4.23814 0 6.72133
2.39306 0 6.71949
4.96109 0 6.68821
6.7286 0 0.496373
0.271417 0 0.496357
6.3083 0 6.49231
0.691702 0 6.49231
0.296562 0 1.286
6.70354 0 1.28601
0.272845 0 4.97755
6.67733 0 4.95584
6.6758 0 2.74566
6.72306 0 2.03593
3.1157 0 6.67645
3.52107 0 6.70431
0.324196 0 2.74566
0.276936 0 2.03593
0.279722 0 4.24888
1.70018 0 6.70469
6.69746 0 3.50575
6.72294 0 4.24697
0.302535 0 3.50575
0.348155 0 6.06101
0.271872 0 5.69857
6.71605 0 6.07332
6.72755 0 5.70655
6.27462 0 0.826183
0.725509 0 0.826157
6.42236 0 1.15866
0.739311 0 5.26329
0.577763 0 1.15864
0.694077 0 1.70555
6.25917 0 5.25458
6.31062 0 3.91786
0.743292 0 2.37254
6.30594 0 1.70555
0.788355 0 3.30817
0.74551 0 4.59327
0.73896 0 3.04671
0.689375 0 3.91786
6.27135 0 3.04798
6.22901 0 3.3172
6.25671 0 2.37254
6.25671 0 4.58307
2.25496 0 6.45182
1.90017 0 6.40798
4.10026 0 6.45215
3.74048 0 6.41395
5.59679 0 6.23036
1.40032 0 6.2213
3.2404 0 6.22069
4.55001 0 6.22726
2.70757 0 6.2268
5.07844 0 6.2244
6.37305 0 0.20937
0.62696 0 0.209356
2.56671 0 6.46544
4.41008 0 6.46577
6.43402 0 6.20467
0.577871 0 6.24462
0.516079 0 6.73479
6.48384 0 6.73465
3.98838 0 6.21071
3.36842 0 6.45463
5.19651 0 6.45541
2.14571 0 6.21002
6.13169 0 6.73937
0.868295 0 6.73939
5.84052 0 6.72188
1.15948 0 6.72188
2.86874 0 6.45731
4.69839 0 6.45147
4.95004 0 6.40922
3.11339 0 6.40683
1.91309 0 6.16453
5.45883 0 6.46718
6.5 0 0.414474
0.5 0 0.414474
6.48395 0 4.42162
0.512619 0 4.43527
0.516032 0 2.211
6.48397 0 2.211
3.7553 0 6.16661
1.56089 0 6.45195
6.5055 0 5.88648
1.43327 0 6.66904
0.181329 0 0.218994
6.81867 0 0.218997
6.24971 0 5.76861
0.790796 0 5.81442
0.550026 0 5.77913
5.57102 0 6.67554
6.47278 0 0.632732
0.527242 0 0.632698
0.490678 0 4.7952
0.520437 0 2.50493
6.47956 0 2.50493
6.47972 0 4.71543
6.47558 0 4.12062
0.524368 0 4.12176
6.4753 0 1.9097
0.524702 0 1.9097
0.825699 0 0.195745
6.17431 0 0.195764
0.498991 0 5.48542
6.51205 0 5.16503
6.76879 0 6.77215
0.227896 0 6.77455
0.520479 0 1.44797
6.47957 0 1.44797
0.488334 0 2.95512
6.5122 0 2.95519
6.45376 0 5.5186
0.490872 0 5.14958
6.45667 0 3.31887
0.527836 0 3.31828
6.49585 0 3.66427
0.502569 0 3.66421
6.16686 0 1.10526
0.833426 0 1.10526
2.39474 0.680938 7
3.5 0.319062 7
4.23684 0.319062 7
5.34211 0.319062 7
6.07211 0.328893 7
1.65789 0.319062 7
0.541972 0.312322 7
6.77055 0.385229 7
0.227229 0.617851 7
5.71053 0.680938 7
4.60526 0.680938 7
3.13158 0.680938 7
1.28136 0.660031 7
2.76316 0.319062 7
3.86842 0.680938 7
6.49139 0.74142 7
6.48695 0.263085 7
6.11624 0.708953 7
0.552632 0.707104 7
0.902581 0.504893 7
2.02632 0.680938 7
4.97368 0.680938 7
2.02632 0.315552 7
[...]
<PointData Vectors='Velocity'>
<DataArray type='Float64' Name='ux' Format='ascii'>
0.00150131
1.27179
0.00302702
1.34738
1.0415
0.255532
0.658607
1.20156
1.20282
0.0016817
1.28541
0.00217763
0.000393864
1.34529
1.27558
1.26316
0.00154872
0.000973144
0.00239731
1.03106
0.251207
0.650613
0.000175717
0.250442
0.649704
1.02983
0.000223939
0.254227
0.657585
1.04054
0
0
0.0193447
0.0510225
0.0974501
0.161148
0.242657
0.333141
0.429161
0.52878
0.630435
0.731001
0.828525
0.920498
1.00114
1.07168
1.12949
1.17791
1.21358
1.24294
0.00174029
0.00263341
0.00392031
1.31925
1.29012
1.25498
1.20742
1.14735
1.07718
0.993524
0.896975
0.797625
0.695098
0.588051
0.482055
0.381469
0.28592
0.195852
0.124647
0.0711635
0.0311852
1.29042
1.30923
1.32798
0.95188
0.898909
0.997062
0.174914
0.127082
0.197226
0.55493
0.487764
0.591981
1.21118
1.22074
1.22852
1.23563
1.24068
1.2455
1.24866
1.25119
1.25231
1.25236
1.25181
1.24982
1.24691
1.24229
1.23724
1.2306
1.22288
1.21305
0.0172269
0.0416556
0.0798318
0.125776
0.184756
0.256491
0.334268
0.41656
0.501285
0.587681
0.674101
0.759393
0.842215
0.920863
0.990711
1.05261
1.10694
1.15603
-0.000200685
-0.00110605
9.16215e-05
1.27085
1.26536
1.25536
1.24379
1.2332
1.22679
1.22353
1.22079
1.22023
1.22115
1.22393
1.22876
1.23563
1.24503
1.25676
1.2684
1.2791
1.28409
0.022096
0.0550118
0.101222
0.165205
0.245013
0.33448
0.429063
0.528641
0.629354
0.72842
0.825217
0.917608
0.999882
1.06961
1.13051
1.18031
1.22014
1.25236
-0.000119532
-0.000920396
0.000680811
0.0117712
0.0353726
0.074116
0.119488
0.178103
0.250915
0.329285
0.410744
0.495322
0.581037
0.667883
0.752827
0.836288
0.914544
0.985024
1.04891
1.1049
1.15539
1.34629
1.34024
1.32882
1.31677
1.30606
1.29807
1.29238
1.28808
1.28589
1.28617
1.2882
1.29109
1.29664
1.3037
1.31565
1.32703
1.33799
1.34381
1.29997
1.3151
1.3298
1.285
1.29386
1.3014
1.30723
1.31142
1.3148
1.31692
1.31813
1.31842
1.31721
1.31556
1.31251
1.30867
1.30311
1.29702
1.28997
1.28227
1.27264
0.0212058
0.0527348
0.095035
0.148108
0.215076
0.29452
0.37829
0.463663
0.552662
0.644384
0.73621
0.824063
0.9087
0.988913
1.06145
1.12545
1.18069
1.22975
0.00141885
0.000975081
0.0015714
1.31279
1.27956
1.23994
1.19037
1.12892
1.05784
0.974601
0.879886
0.781401
0.679278
0.573484
0.469778
0.370371
0.274885
0.185297
0.116365
0.0633414
0.0245832
0.00145376
0.00128602
0.00100607
0.0258178
0.0573897
0.0996126
0.149855
0.216711
0.293225
0.37428
0.458529
0.546745
0.636753
0.725363
0.811443
0.895036
0.974879
1.04627
1.10862
1.16489
1.21526
1.21704
1.23202
1.24699
1.21872
1.23807
1.25625
0.00233214
0.00352818
0.00254995
0.94636
0.888595
0.979899
0.177139
0.125526
0.188133
0.552728
0.481478
0.579358
0.000177421
0.000133899
0.000104042
3.3313e-05
2.28323e-05
6.23079e-05
0.000225205
0.000399146
0.000235458
0.000196561
0.000179776
7.84605e-05
-2.38408e-05
-0.000115318
3.51705e-06
7.56949e-05
0.000383029
0.000180479
0.000882297
0.00293796
0.00340339
0.169793
0.124894
0.192213
0.547769
0.480771
0.581449
0.943447
0.88793
0.980823
0.000204169
0.000138566
2.35872e-05
4.44883e-06
-5.66099e-06
0.000106452
0.000222279
0.000269813
0.000219619
0.000159579
0.000155867
0.000166612
-2.81986e-05
-5.31839e-05
-2.56181e-05
6.06626e-05
0.000244734
0.000208985
0.0030372
0.00224121
0.00246337
0.175899
0.12504
0.190654
0.254443
0.254
0.253359
0.555003
0.486621
0.586897
0.658598
0.657977
0.658082
0.95201
0.897804
0.992305
1.0426
1.04244
1.0413
1.03045
1.03077
1.03199
0.249193
0.249728
0.24996
0.650279
0.650265
0.650585
0
0
0
0
0
0
0
0
0
0
0
0
0
0
0
0
0
0
0
0
0
0
0
0
0
0
0
0
0
0
0
0
0
0
0
0
1.15485
0.0468855
1.22208
1.2824
0.0160771
1.28883
1.25156
1.2535
1.2079
0.0386277
1.15611
1.09861
0.823786
0.813918
1.3012
0.0168042
0.396131
0.432817
0.0732176
0.479357
0.51607
0.126726
0.146059
0.329744
0.29979
0.883561
0.923462
0.712691
0.729468
1.09637
0.0935603
1.18433
0.254283
0.230607
0.669518
1.05447
1.0354
0.0162644
0.0105589
1.26718
1.31665
0.6394
1.2761
0.0796065
1.25598
0.0276772
1.23223
1.22767
1.24558
1.24328
1.23861
1.24314
1.21929
1.21782
1.23911
1.22412
1.22264
1.19845
1.20005
1.13637
1.13019
0.0180942
0.0216446
0.289276
0.878449
0.292622
0.884108
0.463881
1.03063
1.02627
0.459527
0.705726
0.141132
0.700494
0.136681
0.0657513
0.0645208
0.577552
0.579798
1.2315
1.23146
0.00647279
0.00600284
1.23114
1.23833
1.22937
1.23548
1.23149
1.22969
1.23933
1.23779
0.375416
0.377178
0.965526
0.959589
0.200822
0.201045
0.78237
0.786329
1.10272
1.10483
1.24299
1.23281
1.23009
1.23919
0.0250246
0.0256429
1.24124
1.23319
0.12259
0.124131
1.04095
1.0346
0.47178
0.287553
1.2304
1.23009
0.473544
0.287752
0.88044
1.23339
0.679785
0.875658
0.683135
1.19882
1.15693
1.2042
1.15842
0.0565697
0.0592655
0.10278
1.0915
0.103484
0.207764
1.08764
0.789179
0.374682
0.204152
0.629042
0.962983
0.55687
0.794412
0.552298
0.626362
0.370682
0.95479
1.23358
1.2316
1.23847
1.23949
1.22746
1.22245
1.24451
1.24115
1.24109
1.23564
0.0041106
0.00392251
1.23443
1.23816
1.21778
1.21614
1.24989
1.26041
1.24486
1.23762
1.23754
1.23515
1.25698
1.24638
1.25221
1.24136
1.23614
1.23826
1.2379
1.23824
1.23191
1.23739
0.0159409
0.0172183
0.918403
0.926736
0.33236
0.329592
1.2469
1.22975
1.18455
1.23589
0.00812201
0.00959174
1.16928
1.17574
1.16891
1.24546
0.0354577
0.0368825
1.00654
0.409142
0.40666
0.985564
0.842361
0.847587
0.254466
0.256183
0.00697359
0.00477029
1.12801
1.07287
1.26485
1.2539
0.152524
0.151036
0.53073
0.527648
1.13271
1.07163
0.62796
0.631713
0.722265
0.726572
0.095555
0.0995967
1.27241
1.2418
1.24661
1.2693
1.29186
1.26087
1.29156
1.30782
1.31738
1.30252
1.27541
1.26552
1.29795
1.2439
1.26619
1.3255
1.29724
1.31427
1.32018
1.29639
1.2788
1.28165
1.25272
1.2472
1.23922
1.24076
1.25147
1.28034
1.27029
1.26629
1.27336
1.29126
1.29148
1.27285
1.25803
1.32197
1.29995
1.27646
1.33338
1.28398
1.33455
1.29509
1.31771
1.31297
1.30918
1.30696
1.2908
1.29934
1.31039
1.3053
1.3083
1.30995
1.29889
1.29203
1.29196
1.28218
1.28143
1.27348
1.25992
1.21069
1.19439
0.0312335
0.0320198
0.951964
0.334673
0.937043
0.329801
1.08607
0.508015
1.10392
0.515047
0.769342
0.756144
0.165792
0.166652
0.0830052
0.0869683
0.64012
0.627535
1.30363
1.29607
0.0111531
0.0139988
1.30701
1.29807
1.29782
1.29744
1.30572
1.30318
1.29836
1.29572
1.03963
0.426254
1.01774
0.416765
0.230764
0.238317
0.852837
0.837029
1.21718
1.23373
1.30206
1.29629
1.30057
1.29937
0.0331206
0.0375973
1.30091
1.30828
1.26131
1.27431
0.151997
0.146022
0.332333
0.323447
1.29733
1.2958
0.732484
0.746773
0.950019
0.932389
1.30694
0.517044
0.527183
1.18162
1.1163
1.16266
1.09339
0.0751559
0.0732904
1.16609
0.244956
0.678683
0.421366
0.241658
0.689259
1.14833
1.03333
1.01537
0.860117
0.612722
0.604305
0.845932
0.414755
0.118334
0.118622
1.30461
1.3034
1.30196
1.30381
1.28623
1.29528
1.31042
1.30212
1.30945
1.2946
0.0110765
0.0106284
1.30402
1.30033
1.2805
1.29195
1.32021
1.32537
1.30803
1.30341
1.29661
1.3056
1.31618
1.32121
1.31051
1.3153
1.30396
1.29889
1.29768
1.30519
1.30293
1.29591
0.0264342
0.0278562
0.371441
0.976835
0.997614
1.31067
0.378846
1.30331
1.30937
0.0150802
0.0120231
1.23373
1.23081
1.2485
1.24574
1.30384
0.297288
0.048378
0.0500019
1.07981
0.458332
1.04528
0.449719
0.899365
0.915144
0.291135
0.0102044
0.0122306
1.13264
1.32484
1.3297
0.587305
0.122962
0.12067
0.792862
0.778558
1.18798
1.15092
1.20583
0.180637
0.184668
0.578198
0.692802
0.680762
1.2947
1.28051
1.28124
1.2544
1.26411
1.30328
1.26625
1.25853
1.24152
1.29605
1.2658
1.2305
1.30179
1.26686
1.23119
1.25308
1.2405
1.2501
1.26087
1.27238
1.25639
1.24858
1.26869
1.27346
1.29037
1.28034
1.29963
1.28356
1.26654
1.28513
1.27978
1.28218
1.25956
1.2621
1.27463
1.2694
1.27942
1.28954
1.29738
1.28447
1.28317
1.26557
1.26178
1.26472
1.3032
1.25317
1.24898
1.30185
1.22841
1.27475
1.2495
1.23728
1.26595
1.27836
1.29062
1.29269
1.21766
1.26928
1.25967
1.22041
1.24232
1.26017
1.26689
1.17329
0.0412664
1.25508
0.0151717
1.30138
1.14036
1.2401
1.28446
0.0394351
1.22227
1.19659
1.11802
0.811451
0.806971
0.0163549
1.28755
0.393031
0.424775
0.0712731
0.476669
0.505157
0.128671
0.138941
0.322136
0.297732
0.876399
0.909476
0.706647
0.717906
1.06171
1.08356
0.0886467
0.245408
0.2313
0.65708
1.0393
1.0109
0.012739
0.0125346
1.27588
1.31449
0.635368
0.0816507
1.25251
1.27529
0.0267993
0.00169925
-0.000428233
0.000418658
0.000740137
0.00175983
0.00110714
-0.000105586
0.000498279
0.000614888
0.000573859
0.00158445
0.000296981
0.000975124
0.00034735
6.26598e-05
0.000344709
0.000869273
9.71832e-05
0.00022875
0.000337136
0.000164374
-4.18609e-05
0.000301573
0.000750795
7.06647e-05
0.000458833
0.000717262
-0.000194889
-8.60763e-05
0.000578839
0.00252306
0.000491412
0.000300921
0.000265658
0.000258685
1.56021e-05
0.00012228
0.000603681
0.000304849
0.000758504
7.90815e-05
6.70024e-05
0.000623833
0.0257367
1.14883
0.015331
1.20558
0.0732755
1.12221
0.393581
0.719713
0.411936
0.739992
1.09364
0.0573065
0.0127816
1.19474
0.320897
0.841597
0.915355
0.879241
0.254168
1.17931
0.0339285
0.299873
0.810588
1.13353
0.0486931
0.228247
0.464931
0.494973
0.667704
0.633545
0.103251
1.0645
1.03158
0.117046
0.340247
0.795259
0.00879573
1.18572
0.025195
1.17241
0.0143457
1.22072
0.0854624
1.07981
0.00213388
-0.000324155
0.000224723
0.000761699
0.00125166
0.000507429
-3.74463e-06
0.000521418
0.000542534
0.000193913
0.0011601
0.000287502
0.000517833
0.000324368
5.81976e-05
0.000292793
0.000406303
-8.05096e-05
-0.000136242
0.000462411
0.000316642
0.000182026
0.000333434
0.00072381
0.000636573
0.000399163
2.80927e-05
0.00223452
-0.000450295
0.000203799
0.00109344
0.000507579
-1.74456e-05
0.000370207
0.000223493
0.000171083
0.00128467
-6.53437e-05
0.000228583
0.000377268
1.73183e-05
-6.13173e-05
0.000724824
0.128621
0.242718
0.225777
0.137904
0.226933
0.210426
0.226953
0.230037
0.24394
0.240122
0.164502
0.14892
0.51249
0.650943
0.623922
0.493813
0.637802
0.646906
0.649615
0.623742
0.606496
0.623489
0.526569
0.557538
0.902631
1.01212
1.04114
0.928196
1.01005
0.996974
1.00933
1.03554
1.04126
1.03833
0.971802
0.932307
1.1541
0.0295516
0.0162757
1.21506
0.0706927
1.13628
0.398817
0.727922
0.416974
0.749645
1.09857
0.0600125
0.0139263
1.20034
0.324159
0.851723
0.928718
0.885683
0.255019
0.234439
1.19003
0.0325302
0.30449
0.818112
1.14233
0.0495125
0.471405
0.500579
0.64088
0.675784
1.07764
0.107731
0.11733
1.03897
0.34487
0.804317
0.0125354
1.18505
0.028434
1.1788
0.0147879
1.23189
0.0864739
1.09014
0.894269
1.03004
1.00287
0.915654
1.00107
0.989989
1.00302
1.02019
1.02586
1.02663
0.958682
0.924357
0.134514
0.238974
0.223495
0.126607
0.237752
0.224469
0.237065
0.225846
0.207282
0.222506
0.148502
0.163031
0.504802
0.64191
0.61768
0.488443
0.639266
0.627341
0.638614
0.619071
0.59983
0.61623
0.522406
0.550454
0.000205036
2.22349e-05
0.000118115
6.82806e-05
8.45423e-05
0.000151955
1.7402e-05
0.000130493
0.000117399
0.000105941
4.19377e-05
0.000128545
0.000353327
-2.52598e-07
-5.65365e-05
0.00012458
8.81778e-06
0.000170193
1.5503e-05
0.000130231
0.000127988
0.000127546
1.36276e-05
5.09727e-05
0.000112772
3.18604e-06
0.000126983
-8.77873e-06
0.000172371
-2.62178e-05
9.72248e-05
0.000109113
0.00017691
-3.90661e-06
8.94639e-05
-2.74338e-05
0.00012807
1.02232e-05
0
0
0
0
0
0
0
0
0
0
0
0
0
0
0
0
0
0
0
0
0
0
0
0
0
0
0
0
0
0
0
0
0
0
0
0
0
0
0
0
0
0
0
0
0
0
0
0
0
0
0
0
0
0
0
0
0
0
0
0
0
0
0.0225185
0.0250961
1.26823
1.26747
1.26763
1.26868
1.1927
1.21448
1.26864
1.26821
1.26822
1.27002
1.26973
1.2681
1.13645
0.382025
0.376959
1.26862
0.00309512
1.12191
1.22991
0.002385
0.797116
0.78679
0.00288079
0.063459
0.0642623
0.00205259
1.27293
1.26771
1.26524
1.25003
1.28497
1.26977
1.25874
1.25
1.27375
1.23529
0.00535309
0.00626628
0.0494058
0.0490801
1.28429
1.2457
1.25716
1.25209
1.28794
1.29068
1.24207
1.26873
1.25968
0.00654491
1.2623
1.17957
1.26023
1.18737
1.26117
1.22652
1.28657
1.25261
1.2836
1.2631
1.28826
0.0029041
1.26622
0.0375977
0.0386649
1.27659
1.08277
1.2358
1.1122
1.25854
1.28238
1.2839
1.25139
1.28442
0.0201946
1.14464
0.304989
0.3086
1.26616
0.326572
0.321359
1.25373
1.07232
0.0350389
0.448573
1.07609
0.0448244
0.046955
0.45414
1.29098
1.16821
1.19172
0.707973
</DataArray>
<DataArray type='Float64' Name='uy' Format='ascii'>
0.0025308
-0.589072
-0.00138992
-0.585708
-0.302698
-0.0413303
-0.149036
-0.520486
-0.82866
-0.00310906
-1.07346
-0.00343258
0.00161204
-1.07647
-0.53325
-0.816584
0.00115228
0.00106103
-0.00259564
-0.646079
-0.137116
-0.366169
-1.34467e-05
-0.100836
-0.313032
-0.587535
8.55598e-06
-0.0820245
-0.211456
-0.375942
0
0
0.00528754
0.00063859
-0.00930508
-0.018148
-0.0401809
-0.0650554
-0.0914046
-0.119075
-0.150891
-0.186975
-0.225266
-0.265807
-0.30565
-0.349113
-0.394079
-0.441542
-0.489987
-0.538542
0.00137269
0.00122831
9.22808e-05
-0.535926
-0.485235
-0.435606
-0.387745
-0.343431
-0.298165
-0.257718
-0.221169
-0.185703
-0.152482
-0.123094
-0.0947418
-0.069297
-0.0521404
-0.0391736
-0.0224952
-0.0120243
-0.00762777
-0.588181
-0.58733
-0.586556
-0.272505
-0.238566
-0.266796
-0.0212908
-0.0176451
-0.036796
-0.123031
-0.101671
-0.126287
-0.538731
-0.556859
-0.575759
-0.593377
-0.611314
-0.628755
-0.64534
-0.662024
-0.678195
-0.69448
-0.710195
-0.725893
-0.741283
-0.756113
-0.770809
-0.785835
-0.800341
-0.814351
-0.0141359
-0.023656
-0.0341864
-0.0523723
-0.0733462
-0.0929555
-0.113922
-0.139212
-0.165966
-0.196238
-0.228168
-0.260633
-0.292752
-0.325005
-0.362747
-0.402574
-0.441557
-0.479346
0.00221255
-0.000119879
-0.00169808
-0.617002
-0.646876
-0.675888
-0.704474
-0.733538
-0.76117
-0.788164
-0.814387
-0.83993
-0.865296
-0.889655
-0.913692
-0.936521
-0.959357
-0.982521
-1.00476
-1.02811
-1.05125
-0.0199029
-0.0398199
-0.0679901
-0.107549
-0.149193
-0.194637
-0.247804
-0.305806
-0.36989
-0.434494
-0.500937
-0.568213
-0.640425
-0.713104
-0.78526
-0.857284
-0.929971
-1.00207
0.000485964
-0.000766139
-0.00331186
0.00199838
-0.007692
-0.0259112
-0.0464689
-0.0738114
-0.110725
-0.152214
-0.194871
-0.24188
-0.291131
-0.344597
-0.400429
-0.459075
-0.520886
-0.580248
-0.640699
-0.702779
-0.765731
-0.614261
-0.64206
-0.6705
-0.698981
-0.728995
-0.757528
-0.785627
-0.813133
-0.840151
-0.866168
-0.892316
-0.916979
-0.94154
-0.965097
-0.987703
-1.01028
-1.0327
-1.05401
-1.07441
-1.07496
-1.07548
-0.550338
-0.565479
-0.582443
-0.599094
-0.61527
-0.631871
-0.647828
-0.663118
-0.678454
-0.693492
-0.708284
-0.723049
-0.737392
-0.751283
-0.765458
-0.778375
-0.791943
-0.803745
-0.00183321
-0.011806
-0.0260534
-0.0400128
-0.059991
-0.0855528
-0.111738
-0.137807
-0.16668
-0.198548
-0.230648
-0.263857
-0.29968
-0.338595
-0.374903
-0.411195
-0.450754
-0.492715
-0.00187755
-0.000799586
0.000563031
-1.00522
-0.934585
-0.863645
-0.79132
-0.718294
-0.648445
-0.576829
-0.504826
-0.435916
-0.36919
-0.304404
-0.245691
-0.191096
-0.138596
-0.0893676
-0.0549681
-0.0282224
-0.00686605
-0.00262084
-0.00186172
0.000219027
-0.0103109
-0.0208591
-0.0371645
-0.0593548
-0.0876542
-0.118473
-0.154544
-0.196331
-0.241208
-0.290704
-0.34299
-0.397806
-0.453054
-0.508604
-0.569773
-0.633027
-0.693795
-0.755066
-0.826205
-0.822454
-0.819582
-0.522915
-0.526722
-0.52991
-0.00190951
-0.000942076
-0.000129975
-0.584096
-0.529624
-0.590666
-0.106784
-0.0674847
-0.0937136
-0.313759
-0.262989
-0.312715
2.87563e-05
9.17497e-05
0.000188137
2.35827e-05
-7.98808e-05
-9.56836e-05
-0.000271651
-9.90005e-05
1.16461e-05
3.75327e-05
0.000162363
0.000165685
8.20922e-05
-0.000189646
-0.000188088
-0.000311424
-0.000251877
-6.24016e-05
0.00193999
0.00160482
0.000346561
-0.0663496
-0.0471743
-0.0765195
-0.265085
-0.219027
-0.264486
-0.534077
-0.473283
-0.524583
6.40911e-05
0.000121656
0.000108156
2.51385e-05
-0.00011111
-0.000233666
-0.000188343
-7.82165e-05
3.71559e-05
6.59506e-05
0.000148853
0.000262828
0.000103355
1.00144e-05
-7.68488e-05
-0.000191523
-0.000211145
-0.000104833
-0.00250937
-0.000550358
-0.000220109
-0.0652192
-0.0397495
-0.0550135
-0.0522631
-0.0627503
-0.0719485
-0.179629
-0.151728
-0.181752
-0.165133
-0.180564
-0.196237
-0.334982
-0.306105
-0.345833
-0.321484
-0.340169
-0.357979
-0.602029
-0.617141
-0.631414
-0.111041
-0.120567
-0.12926
-0.327152
-0.340439
-0.353215
0
0
0
0
0
0
0
0
0
0
0
0
0
0
0
0
0
0
0
0
0
0
0
0
0
0
0
0
0
0
0
0
0
0
0
0
-0.368239
-0.00371575
-0.461813
-0.556421
0.00288165
-0.51732
-0.515925
-0.466233
-0.419573
-0.000772487
-0.391874
-0.347156
-0.203549
-0.210588
-0.556715
0.00118086
-0.0782919
-0.0834828
-0.00659699
-0.102568
-0.105454
-0.0145116
-0.0249175
-0.0577892
-0.0543331
-0.242288
-0.237987
-0.172645
-0.168448
-0.326346
-0.0116428
-0.425621
-0.0449612
-0.0354649
-0.148577
-0.297759
-0.314427
-0.00124101
0.00455139
-0.559362
-0.556541
-0.148421
-0.529023
-0.00626259
-0.492837
0.000659887
-0.833032
-0.599283
-0.722335
-0.770888
-0.654038
-0.690425
-0.5647
-0.545996
-0.803162
-0.86505
-0.879962
-0.503698
-0.843529
-0.444997
-0.741496
-0.00672196
-0.0127094
-0.142671
-0.503323
-0.0898934
-0.292549
-0.137892
-0.369395
-0.631566
-0.237017
-0.223598
-0.0508253
-0.379539
-0.0644475
-0.0419043
-0.0140249
-0.32385
-0.151912
-0.701918
-0.828111
-0.00959803
-0.00116195
-0.539418
-0.948965
-0.754164
-0.874601
-0.592802
-0.609887
-0.917039
-0.898211
-0.206905
-0.0918039
-0.304419
-0.587828
-0.117439
-0.0456511
-0.453553
-0.229278
-0.734383
-0.390615
-0.918665
-0.854198
-0.729887
-0.891714
-0.0200233
-0.00214328
-0.935508
-0.570999
-0.024854
-0.076897
-0.345714
-0.656592
-0.258946
-0.161472
-0.773659
-0.804786
-0.121201
-0.0668035
-0.26406
-0.678129
-0.386889
-0.522301
-0.188213
-0.487366
-0.435724
-0.878031
-0.805804
-0.0267638
-0.0223596
-0.0562852
-0.411351
-0.0303208
-0.0675026
-0.693713
-0.440552
-0.114086
-0.102479
-0.198861
-0.328484
-0.170182
-0.254476
-0.287852
-0.330307
-0.184802
-0.565015
-0.67832
-0.646671
-0.799401
-0.770535
-0.849308
-0.580976
-0.7066
-0.787805
-0.672905
-0.818082
-0.00530091
-0.00508763
-0.702166
-0.82048
-0.887609
-0.528326
-0.591862
-0.991631
-0.751388
-0.753567
-0.865004
-0.632297
-0.97127
-0.619669
-0.950569
-0.638889
-0.721133
-0.835116
-0.842787
-0.729166
-0.609431
-0.882757
-0.0121183
-0.00545721
-0.543962
-0.298351
-0.0914136
-0.173475
-0.729976
-0.629146
-0.830739
-0.652651
0.0025334
-0.0122507
-0.794634
-0.482917
-0.463479
-0.925628
-0.0219251
-0.0120498
-0.338423
-0.113012
-0.213751
-0.601039
-0.487176
-0.265946
-0.134915
-0.0705791
-0.00847765
3.36306e-05
-0.423008
-0.689665
-1.01564
-0.575436
-0.0425734
-0.0832181
-0.147577
-0.284409
-0.754991
-0.382414
-0.342576
-0.184278
-0.404845
-0.216433
-0.0436449
-0.0375114
-0.772853
-0.852848
-0.902902
-0.97303
-1.01735
-0.717766
-0.629889
-1.0608
-0.604354
-0.997398
-0.928467
-0.827413
-0.685886
-0.800896
-0.878573
-1.04486
-1.04305
-1.02215
-0.629436
-0.657792
-0.745187
-0.952578
-0.746151
-0.774166
-0.827511
-0.877961
-0.926833
-0.99507
-0.800383
-0.852778
-0.904227
-0.974358
-0.715359
-0.68342
-0.949817
-1.06178
-0.60528
-0.659138
-1.06261
-0.605034
-0.601979
-1.06063
-0.657614
-1.04913
-1.03291
-0.617854
-0.82831
-0.603889
-0.722105
-0.768828
-0.655772
-0.691391
-0.800002
-0.572949
-0.551427
-0.857758
-0.875097
-0.508915
-0.842667
-0.450847
-0.745783
-0.00694381
-0.0143562
-0.298664
-0.0884465
-0.497707
-0.145466
-0.627898
-0.236341
-0.375219
-0.138788
-0.224923
-0.377569
-0.0738216
-0.042457
-0.0382776
-0.018144
-0.154323
-0.322166
-0.701075
-0.828773
-0.00635261
-0.00480203
-0.537405
-0.950913
-0.753493
-0.876313
-0.594247
-0.611203
-0.916519
-0.896481
-0.300939
-0.0934105
-0.591913
-0.20543
-0.110891
-0.0547159
-0.229339
-0.453357
-0.807079
-0.433222
-0.92111
-0.855094
-0.728674
-0.894825
-0.0140319
-0.0110501
-0.935686
-0.571311
-0.873046
-0.485517
-0.0343447
-0.0687658
-0.0708795
-0.1577
-0.773107
-0.805168
-0.388025
-0.186016
-0.262206
-0.52475
-0.675162
-0.258644
-0.1238
-0.388919
-0.345964
-0.735338
-0.658063
-0.033045
-0.0178029
-0.41648
-0.0632701
-0.326986
-0.11385
-0.108571
-0.200859
-0.690279
-0.339332
-0.556064
-0.25682
-0.172969
-0.28611
-0.438599
-0.185979
-0.0496096
-0.0305886
-0.678613
-0.648398
-0.799187
-0.770438
-0.842394
-0.588378
-0.707033
-0.785165
-0.675041
-0.813976
-0.00708548
-0.0035211
-0.702672
-0.820151
-0.893987
-0.529638
-0.993681
-0.589815
-0.750283
-0.753639
-0.864291
-0.635683
-0.973851