<VTKFile type='UnstructuredGrid' version='0.1' byte_order='BigEndian'>
<UnstructuredGrid>
<Piece NumberOfPoints='14' NumberOfCells='24'>
<Points>
<DataArray type='Float64' NumberOfComponents='3' Format='ascii'>
0 0 0
0 1 0
0 1 1
0 0 1
0.827794 -0.454292 -0.0120684
1.17221 0.545708 0.0120684
1.17221 0.545708 0.987932
0.827794 -0.454292 1.01207
0 0.5 0.5
0.384172 -0.197378 0.5
0.5 0.32029 5.24403e-17
1 0.0532942 0.5
0.5 0.32029 1
0.615828 0.802622 0.5
</DataArray>
</Points>
<CellData Scalars='scalars'>
<DataArray type='Float64' Name='Parts' format='ascii'>
1
1
1
1
1
1
1
1
1
1
1
1
1
1
1
1
1
1
1
1
1
1
1
1
</DataArray>
<DataArray type='Float64' Name='e_x' format='ascii'>
1.54043e-15
-2.57148e-15
1.54043e-15
-2.57148e-15
-0.172206
-3.33067e-16
4.25732e-17
0.172206
0.231657
5.35299e-16
0.172206
-8.12855e-16
-0.231657
-0.172206
-0.112756
0.112756
-0.0563778
0.115828
-0.115828
0.0563778
-0.115828
0.115828
-0.0563778
0.0563778
</DataArray>
<DataArray type='Float64' Name='e_y' format='ascii'>
0
0
0
0
0.0948709
0
0
-0.0948709
0
0
-0.0948709
-5.55112e-17
0
0.0948709
0.0151717
-0.0151717
0.0252539
-0.0176681
0.0176681
-0.0252539
0.0176681
-0.0176681
0.0252539
-0.0252539
</DataArray>
<DataArray type='Float64' Name='e_z' format='ascii'>
3.1044e-16
-4.79638e-16
-4.79638e-16
3.1044e-16
0.0120684
3.13985e-16
0
-0.0120684
0
0
-0.0120684
-8.37527e-16
0
0.0120684
0.0241368
-0.0241368
0.0120684
1.52134e-16
1.58306e-16
-0.0120684
-2.42905e-16
-2.36733e-16
0.0120684
-0.0120684
</DataArray>
<DataArray type='Float64' Name='gamma_xy' format='ascii'>
0.1631
0.266998
0.1631
0.266998
0.282085
0.20475
0.359421
0.282085
0.394757
0.359421
0.282085
0.20475
0.394757
0.282085
0.169414
0.169414
0.235874
0.26126
0.26126
0.235874
0.26126
0.26126
0.235874
0.235874
</DataArray>
<DataArray type='Float64' Name='gamma_yz' format='ascii'>
0.0353361
-0.0353361
-0.0353361
0.0353361
-0.0716031
-0.0393084
0
-0.0716031
0
0
0.0716031
0.0393084
0
0.0716031
-5.81132e-16
6.47052e-16
0.00198615
0.0176681
0.0176681
0.00198615
-0.0176681
-0.0176681
-0.00198615
-0.00198615
</DataArray>
<DataArray type='Float64' Name='gamma_zx' format='ascii'>
1.70181e-15
-7.92193e-16
-7.9619e-16
1.71351e-15
-0.071519
-5.3603e-16
-1.04881e-16
0.071519
1.99388e-16
-2.74079e-16
-0.071519
6.14703e-16
2.11731e-16
0.071519
-3.86843e-16
-3.41741e-16
-0.0443094
0.115828
-0.115828
0.0443094
0.115828
-0.115828
0.0443094
-0.0443094
</DataArray>
<DataArray type='Float64' Name='stress_x' format='ascii'>
2.25276e-11
-3.73832e-11
1.79695e-11
-3.28251e-11
-1701.2
-2.67214e-12
5.73101e-13
1701.2
3118.46
7.20595e-12
1701.2
-1.60944e-11
-3118.46
-1701.2
-1291.08
1291.08
-543.611
1457.3
-1457.3
543.611
-1457.3
1457.3
-543.611
543.611
</DataArray>
<DataArray type='Float64' Name='stress_y' format='ascii'>
1.06781e-11
-1.76026e-11
6.11998e-12
-1.30445e-11
353.236
-1.10088e-13
2.45615e-13
-353.236
1336.48
3.08826e-12
-353.236
-1.02687e-11
-1336.48
353.236
-307.028
307.028
84.3254
430.401
-430.401
-84.3254
-430.401
430.401
84.3254
-84.3254
</DataArray>
<DataArray type='Float64' Name='stress_z' format='ascii'>
1.30661e-11
-2.12921e-11
2.43045e-12
-1.06564e-11
-283.706
2.30518e-12
2.45615e-13
283.706
1336.48
3.08826e-12
283.706
-1.62842e-11
-1336.48
-283.706
-238.066
238.066
-17.1018
566.31
-566.31
17.1018
-566.31
566.31
-17.1018
17.1018
</DataArray>
<DataArray type='Float64' Name='tau_xy' format='ascii'>
627.308
1026.91
627.308
1026.91
1084.94
787.501
1382.39
1084.94
1518.3
1382.39
1084.94
787.501
1518.3
1084.94
651.592
651.592
907.208
1004.85
1004.85
907.208
1004.85
1004.85
907.208
907.208
</DataArray>
<DataArray type='Float64' Name='tau_yz' format='ascii'>
135.908
-135.908
-135.908
135.908
-275.396
-151.186
0
-275.396
0
0
275.396
151.186
0
275.396
-2.23512e-12
2.48866e-12
7.63903
67.9541
67.9541
7.63903
-67.9541
-67.9541
-7.63903
-7.63903
</DataArray>
<DataArray type='Float64' Name='tau_zx' format='ascii'>
6.54543e-12
-3.0469e-12
-3.06227e-12
6.59044e-12
-275.073
-2.06165e-12
-4.03387e-13
275.073
7.66877e-13
-1.05415e-12
-275.073
2.36424e-12
8.14352e-13
275.073
-1.48786e-12
-1.31439e-12
-170.421
445.494
-445.494
170.421
445.494
-445.494
170.421
-170.421
</DataArray>
<DataArray type='Float64' Name='stress' format='ascii'>
2.98854e-11
4.90854e-11
1.63739e-11
3.40608e-11
1965.01
4.77492e-12
6.54972e-13
1965.01
3563.95
8.23537e-12
1965.01
3.15394e-11
3563.95
1965.01
1238.87
1238.87
591.051
1625.99
1625.99
591.051
1625.99
1625.99
591.051
591.051
</DataArray>
<DataArray type='Float64' Name='volume' format='ascii'>
0.0416667
0.0416667
0.0416667
0.0416667
0.0416667
0.0416667
0.0416667
0.0416667
0.0416667
0.0416667
0.0416667
0.0416667
0.0416667
0.0416667
0.0416667
0.0416667
0.0416667
0.0416667
0.0416667
0.0416667
0.0416667
0.0416667
0.0416667
0.0416667
</DataArray>
</CellData>
<Cells>
<DataArray type='Int32' Name='connectivity' format='ascii'>
10 
8 
9 
13 
13 
12 
9 
11 
12 
9 
8 
13 
9 
10 
13 
11 
13 
10 
1 
5 
5 
11 
10 
4 
1 
8 
0 
10 
10 
9 
0 
4 
0 
9 
8 
3 
8 
12 
2 
3 
9 
12 
3 
7 
6 
7 
12 
11 
2 
8 
1 
13 
12 
2 
6 
13 
11 
13 
6 
5 
11 
7 
9 
4 
13 
6 
12 
11 
8 
9 
0 
10 
10 
1 
8 
13 
7 
9 
12 
11 
2 
12 
8 
13 
12 
8 
9 
3 
11 
10 
13 
5 
9 
10 
11 
4 
</DataArray>
<DataArray type='Int32' Name='offsets' format='ascii'>
4
8
12
16
20
24
28
32
36
40
44
48
52
56
60
64
68
72
76
80
84
88
92
96
</DataArray>
<DataArray type='Int32' Name='types' format='ascii'>
10
10
10
10
10
10
10
10
10
10
10
10
10
10
10
10
10
10
10
10
10
10
10
10
</DataArray>
</Cells>
</Piece>
</UnstructuredGrid>
</VTKFile>
